/*--------------------------------*- C++ -*----------------------------------*\
| =========                 |                                                 |
| \\      /  F ield         | OpenFOAM: The Open Source CFD Toolbox           |
|  \\    /   O peration     | Version:  2.2.x                                 |
|   \\  /    A nd           | Web:      www.OpenFOAM.org                      |
|    \\/     M anipulation  |                                                 |
\*---------------------------------------------------------------------------*/
FoamFile
{
    version     2.0;
    format      ascii;
    class       volVectorField;
    location    "0.0002";
    object      U2;
}
// * * * * * * * * * * * * * * * * * * * * * * * * * * * * * * * * * * * * * //

dimensions      [0 1 -1 0 0 0 0];

internalField   nonuniform List<vector> 
750
(
(0 0.0113136 -0.0148776)
(0 -0.00885297 -0.0272211)
(0 -0.00817579 -0.0117262)
(0 0.021905 -0.0147829)
(0 0.0797487 -0.0266268)
(0 0.188756 -0.0663783)
(0 0.240763 -0.0813373)
(0 0.000245351 -0.0293316)
(0 0.00135423 -0.0403713)
(0 0.00433244 -0.0235253)
(0 0.0170973 -0.0477663)
(0 0.0343349 -0.0526417)
(0 0.0730832 -0.100208)
(0 0.047385 -0.110835)
(0 0.0116147 -0.0493299)
(0 0.00322114 -0.0607208)
(0 -0.0188039 -0.0688382)
(0 -0.00118072 -0.0545636)
(0 0.0230563 -0.0616115)
(0 0.0445469 -0.0810899)
(0 0.0370943 -0.0746814)
(0 -0.000680585 -0.0761096)
(0 -0.00872811 -0.0921575)
(0 -0.00290724 -0.0916582)
(0 0.011003 -0.0744125)
(0 0.0247254 -0.0722787)
(0 0.0523684 -0.0992026)
(0 0.0649001 -0.0924765)
(0 0.00878312 -0.101946)
(0 -0.00327609 -0.160155)
(0 -0.0112411 -0.133638)
(0 0.00333878 -0.0901024)
(0 0.0210747 -0.105442)
(0 0.0463548 -0.143645)
(0 0.0654422 -0.144213)
(0 -0.0245432 -0.122859)
(0 -0.0288995 -0.155951)
(0 0.0333599 -0.145609)
(0 0.0301998 -0.121512)
(0 0.0104582 -0.129475)
(0 0.0114712 -0.202968)
(0 0.0306276 -0.19072)
(0 0.00265201 -0.164499)
(0 0.00558648 -0.105125)
(0 0.00478744 -0.0921732)
(0 -0.00415479 -0.155683)
(0 -0.036411 -0.135148)
(0 -0.0486274 -0.208194)
(0 -0.0287888 -0.199011)
(0 0.0277094 -0.129882)
(0 0.0559853 -0.195281)
(0 -0.0170436 -0.185998)
(0 -0.0401515 -0.157201)
(0 -0.0556916 -0.197627)
(0 -0.0475198 -0.134802)
(0 -0.0341413 -0.1473)
(0 -0.0295799 -0.0992996)
(0 -0.0203602 -0.139724)
(0 0.0315301 -0.18542)
(0 -0.0108347 -0.145704)
(0 -0.0206331 -0.163871)
(0 -0.00836031 -0.119276)
(0 -0.0361763 -0.121168)
(0 -0.0104862 -0.0588178)
(0 -0.0208508 -0.0213026)
(0 -0.0310279 -0.114157)
(0 -0.0267594 -0.152392)
(0 -0.00861853 -0.091199)
(0 -0.0179671 -0.108897)
(0 -0.0444056 -0.0920467)
(0 0.0334096 -0.0819246)
(0 -0.128375 -0.130116)
(0 -0.193034 -0.120188)
(0 0.00953458 -0.0752839)
(0 0.0161151 -0.0886102)
(0 0.00264299 -0.0552935)
(0 -0.012498 -0.0479111)
(0 -0.0302218 -0.123016)
(0 -0.0159644 -0.118636)
(0 -0.00602885 -0.0320468)
(0 -0.0158289 -0.0525457)
(0 0.0105011 -0.0524357)
(0 0.0156556 -0.0451263)
(0 -0.00672853 -0.0280142)
(0 0.0484266 -0.0446803)
(0 0.038594 -0.0165775)
(0 -0.043996 -0.023476)
(0 -0.0418148 -0.0237918)
(0 0.0299931 -0.0174934)
(0 0.0413505 -0.0285941)
(0 -0.0185672 -0.0194182)
(0 0 0)
(0 0 0)
(0 0 0)
(0 0 0)
(0 0 0)
(0 0 0)
(0 0 0)
(0 0 0)
(0 0 0)
(0 0 0)
(0 0 0)
(0 0 0)
(0 0 0)
(0 0 0)
(0 0 0)
(0 0 0)
(0 0 0)
(0 0 0)
(0 0 0)
(0 0 0)
(0 0 0)
(0 0 0)
(0 0 0)
(0 0 0)
(0 0 0)
(0 0 0)
(0 0 0)
(0 0 0)
(0 0 0)
(0 0 0)
(0 0 0)
(0 0 0)
(0 0 0)
(0 0 0)
(0 0 0)
(0 0 0)
(0 0 0)
(0 0 0)
(0 0 0)
(0 0 0)
(0 0 0)
(0 0 0)
(0 0 0)
(0 0 0)
(0 0 0)
(0 0 0)
(0 0 0)
(0 0 0)
(0 0 0)
(0 0 0)
(0 0 0)
(0 0 0)
(0 0 0)
(0 0 0)
(0 0 0)
(0 0 0)
(0 0 0)
(0 0 0)
(0 0 0)
(0 0 0)
(0 0 0)
(0 0 0)
(0 0 0)
(0 0 0)
(0 0 0)
(0 0 0)
(0 0 0)
(0 0 0)
(0 0 0)
(0 0 0)
(0 0 0)
(0 0 0)
(0 0 0)
(0 0 0)
(0 0 0)
(0 0 0)
(0 0 0)
(0 0 0)
(0 0 0)
(0 0 0)
(0 0 0)
(0 0 0)
(0 0 0)
(0 0 0)
(0 0 0)
(0 0 0)
(0 0 0)
(0 0 0)
(0 0 0)
(0 0 0)
(0 0 0)
(0 0 0)
(0 0 0)
(0 0 0)
(0 0 0)
(0 0 0)
(0 0 0)
(0 0 0)
(0 0 0)
(0 0 0)
(0 0 0)
(0 0 0)
(0 0 0)
(0 0 0)
(0 0 0)
(0 0 0)
(0 0 0)
(0 0 0)
(0 0 0)
(0 0 0)
(0 0 0)
(0 0 0)
(0 0 0)
(0 0 0)
(0 0 0)
(0 0 0)
(0 0 0)
(0 0 0)
(0 0 0)
(0 0 0)
(0 0 0)
(0 0 0)
(0 0 0)
(0 0 0)
(0 0 0)
(0 0 0)
(0 0 0)
(0 0 0)
(0 0 0)
(0 0 0)
(0 0 0)
(0 0 0)
(0 0 0)
(0 0 0)
(0 0 0)
(0 0 0)
(0 0 0)
(0 0 0)
(0 0 0)
(0 0 0)
(0 0 0)
(0 0 0)
(0 0 0)
(0 0 0)
(0 0 0)
(0 0 0)
(0 0 0)
(0 0 0)
(0 0 0)
(0 0 0)
(0 0 0)
(0 0 0)
(0 0 0)
(0 0 0)
(0 0 0)
(0 0 0)
(0 0 0)
(0 0 0)
(0 0 0)
(0 0 0)
(0 0 0)
(0 0 0)
(0 0 0)
(0 0 0)
(0 0 0)
(0 0 0)
(0 0 0)
(0 0 0)
(0 0 0)
(0 0 0)
(0 0 0)
(0 0 0)
(0 0 0)
(0 0 0)
(0 0 0)
(0 0 0)
(0 0 0)
(0 0 0)
(0 0 0)
(0 0 0)
(0 0 0)
(0 0 0)
(0 0 0)
(0 0 0)
(0 0 0)
(0 0 0)
(0 0 0)
(0 0 0)
(0 0 0)
(0 0 0)
(0 0 0)
(0 0 0)
(0 0 0)
(0 0 0)
(0 0 0)
(0 0 0)
(0 0 0)
(0 0 0)
(0 0 0)
(0 0 0)
(0 0 0)
(0 0 0)
(0 0 0)
(0 0 0)
(0 0 0)
(0 0 0)
(0 0 0)
(0 0 0)
(0 0 0)
(0 0 0)
(0 0 0)
(0 0 0)
(0 0 0)
(0 0 0)
(0 0 0)
(0 0 0)
(0 0 0)
(0 0 0)
(0 0 0)
(0 0 0)
(0 0 0)
(0 0 0)
(0 0 0)
(0 0 0)
(0 0 0)
(0 0 0)
(0 0 0)
(0 0 0)
(0 0 0)
(0 0 0)
(0 0 0)
(0 0 0)
(0 0 0)
(0 0 0)
(0 0 0)
(0 0 0)
(0 0 0)
(0 0 0)
(0 0 0)
(0 0 0)
(0 0 0)
(0 0 0)
(0 0 0)
(0 0 0)
(0 0 0)
(0 0 0)
(0 0 0)
(0 0 0)
(0 0 0)
(0 0 0)
(0 0 0)
(0 0 0)
(0 0 0)
(0 0 0)
(0 0 0)
(0 0 0)
(0 0 0)
(0 0 0)
(0 0 0)
(0 0.00889448 -0.097688)
(0 0.0189445 -0.193993)
(0 0.0355903 -0.066646)
(0 0.0970098 -0.100603)
(0 0.104117 -0.20272)
(0 0.0533879 -0.300915)
(0 -0.0412954 -0.276036)
(0 -0.0572545 -0.183835)
(0 -0.0663665 -0.158716)
(0 -0.0707728 -0.103917)
(0 -0.0311867 -0.0541858)
(0 -0.0246766 -0.0524445)
(0 -0.020083 -0.0215324)
(0 0 0)
(0 0 0)
(0 0 0)
(0 0 0)
(0 0 0)
(0 0 0)
(0 0 0)
(0 0 0)
(0 0 0)
(0 0 0)
(0 0 0)
(0 0 0)
(0 0 0)
(0 0 0)
(0 0 0)
(0 0 0)
(0 0 0)
(0 0 0)
(0 0 0)
(0 0 0)
(0 0 0)
(0 0 0)
(0 0 0)
(0 0 0)
(0 0 0)
(0 0 0)
(0 0 0)
(0 0 0)
(0 0 0)
(0 0 0)
(0 0 0)
(0 0 0)
(0 0 0)
(0 0 0)
(0 0 0)
(0 0 0)
(0 0 0)
(0 -0.239128 -0.0663263)
(0 -0.201478 -0.044328)
(0 -0.155224 -0.0101109)
(0 -0.176502 0.0126936)
(0 -0.18532 0.0334488)
(0 -0.0669583 0.0545348)
(0 0.01981 0.0372995)
(0 -0.0225167 -0.0692505)
(0 -0.0496773 -0.0476004)
(0 -0.0329241 -0.0108064)
(0 -0.0483907 0.0179604)
(0 -0.0518359 0.0571573)
(0 -0.0258089 0.170028)
(0 0.00910925 0.128441)
(0 0.0108997 -0.0305985)
(0 0.00227636 0.00172337)
(0 0.00990785 -0.0125297)
(0 0.0222926 -0.00305148)
(0 0.0660481 0.0312212)
(0 0.0360539 0.140755)
(0 -0.016282 0.0949795)
(0 0.103928 -0.076332)
(0 -0.00205337 -0.0493095)
(0 -0.0508742 -0.0942826)
(0 0.0686371 -0.0721522)
(0 0.237979 -0.0769122)
(0 0.0867655 -0.0155023)
(0 -0.0279465 -0.0209528)
(0 0.0936706 -0.182828)
(0 -0.0225126 -0.240899)
(0 -0.0313964 -0.222314)
(0 0.132345 -0.211828)
(0 0.317298 -0.307766)
(0 0.167153 -0.374278)
(0 -0.0556771 -0.325245)
(0 0.0632723 -0.329262)
(0 -0.00514819 -0.511249)
(0 -0.0349937 -0.390765)
(0 0.0716637 -0.381227)
(0 0.162631 -0.537925)
(0 0.105201 -0.946812)
(0 -0.0470124 -0.821697)
(0 -0.0825969 -0.29105)
(0 -0.0417244 -0.414205)
(0 0.0826058 -0.422588)
(0 -0.00730846 -0.392941)
(0 -0.144764 -0.620137)
(0 -0.0977701 -0.968542)
(0 0.03566 -0.894637)
(0 -0.0644466 -0.177195)
(0 -0.08296 -0.188961)
(0 -0.0588047 -0.220434)
(0 -0.152645 -0.365393)
(0 -0.321595 -0.436605)
(0 -0.162291 -0.512462)
(0 0.0556526 -0.471787)
(0 -0.0652849 -0.147157)
(0 -0.081748 -0.200554)
(0 -0.116266 -0.132168)
(0 -0.213388 -0.203929)
(0 -0.251045 -0.178042)
(0 -0.113744 -0.140013)
(0 0.0283688 -0.109635)
(0 -0.0855583 -0.0819371)
(0 -0.0194343 -0.0739495)
(0 -0.00690389 -0.0590316)
(0 -0.0803983 -0.0389529)
(0 -0.138479 -0.0237072)
(0 -0.0576855 0.0324678)
(0 0.0216842 0.0151169)
(0 -0.0125099 -0.0314528)
(0 -0.0135706 -0.0197637)
(0 -0.019413 -0.0266616)
(0 -0.0207954 -0.023708)
(0 -0.00232022 -0.000556681)
(0 0.00810057 0.102327)
(0 -0.00372695 0.053077)
(0 -0.0229056 -0.0262716)
(0 -0.00488633 -0.024805)
(0 -0.00755381 -0.0137307)
(0 -0.00560896 -0.0583942)
(0 0.146565 -0.0811166)
(0 0.0958188 -0.00835244)
(0 -0.0211377 -0.00174542)
(0 0.0171611 -0.010379)
(0 0.0236526 -0.00541485)
(0 -0.117656 -0.0191023)
(0 -0.112747 -0.0112116)
(0 0.170218 -0.0288358)
(0 0.189122 -0.0845551)
(0 -0.00348986 -0.0346236)
(0 0 0)
(0 0 0)
(0 0 0)
(0 0 0)
(0 0 0)
(0 0 0)
(0 0 0)
(0 0 0)
(0 0 0)
(0 0 0)
(0 0 0)
(0 0 0)
(0 0 0)
(0 0 0)
(0 0 0)
(0 0 0)
(0 0 0)
(0 0 0)
(0 0 0)
(0 0 0)
(0 0 0)
(0 0 0)
(0 0 0)
(0 0 0)
(0 0 0)
(0 0 0)
(0 0 0)
(0 0 0)
(0 0 0)
(0 0 0)
(0 0 0)
(0 0 0)
(0 0 0)
(0 0 0)
(0 0 0)
(0 0 0)
(0 0 0)
(0 0 0)
(0 0 0)
(0 0 0)
(0 0 0)
(0 0 0)
(0 0 0)
(0 0 0)
(0 0 0)
(0 0 0)
(0 0 0)
(0 0 0)
(0 0 0)
(0 0 0)
(0 0 0)
(0 0 0)
(0 0 0)
(0 0 0)
(0 0 0)
(0 0 0)
(0 0 0)
(0 0 0)
(0 0 0)
(0 0 0)
(0 0 0)
(0 0 0)
(0 0 0)
(0 0 0)
(0 0 0)
(0 0 0)
(0 0 0)
(0 0 0)
(0 0 0)
(0 0 0)
(0 0 0)
(0 0 0)
(0 0 0)
(0 0 0)
(0 0 0)
(0 0 0)
(0 0 0)
(0 0 0)
(0 0 0)
(0 0 0)
(0 0 0)
(0 0 0)
(0 0 0)
(0 0 0)
(0 0 0)
(0 0 0)
(0 0 0)
(0 0 0)
(0 0 0)
(0 0 0)
(0 0 0)
(0 0 0)
(0 0 0)
(0 0 0)
(0 0 0)
(0 0 0)
(0 0 0)
(0 0 0)
(0 0 0)
(0 0 0)
(0 0 0)
(0 0 0)
(0 0 0)
(0 0 0)
(0 0 0)
(0 0 0)
(0 0 0)
(0 0 0)
(0 0 0)
(0 0 0)
(0 0 0)
(0 0 0)
(0 0 0)
(0 0 0)
(0 0 0)
(0 0 0)
(0 0 0)
(0 0 0)
(0 0 0)
(0 0 0)
(0 0 0)
(0 0 0)
(0 0 0)
(0 0 0)
(0 0 0)
(0 0 0)
(0 0 0)
(0 0 0)
(0 0 0)
(0 0 0)
(0 0 0)
(0 0 0)
(0 0 0)
(0 0 0)
(0 0 0)
(0 0 0)
(0 0 0)
(0 0 0)
(0 0 0)
(0 0 0)
(0 0 0)
(0 0 0)
(0 0 0)
(0 0 0)
(0 0 0)
(0 0 0)
(0 0 0)
(0 0 0)
(0 0 0)
(0 0 0)
(0 0 0)
(0 0 0)
(0 0 0)
(0 0 0)
(0 0 0)
(0 0 0)
(0 0 0)
(0 0 0)
(0 0 0)
(0 0 0)
(0 0 0)
(0 0 0)
(0 0 0)
(0 0 0)
(0 0 0)
(0 0 0)
(0 0 0)
(0 0 0)
(0 0 0)
(0 0 0)
(0 0 0)
(0 0 0)
(0 0 0)
(0 0 0)
(0 0 0)
(0 0 0)
(0 0 0)
(0 0 0)
(0 0 0)
(0 0 0)
(0 0 0)
(0 0 0)
(0 0 0)
(0 0 0)
(0 0 0)
(0 0 0)
(0 0 0)
(0 0 0)
(0 0 0)
(0 0 0)
(0 0 0)
(0 0 0)
(0 0 0)
(0 0 0)
(0 0 0)
(0 0 0)
(0 0 0)
(0 0 0)
(0 0 0)
(0 0 0)
(0 0 0)
(0 0 0)
(0 0 0)
(0 0 0)
(0 0 0)
(0 0 0)
(0 0 0)
(0 0 0)
(0 0 0)
(0 0 0)
(0 0 0)
(0 0 0)
(0 0 0)
(0 0 0)
(0 0 0)
(0 0 0)
(0 0 0)
(0 0 0)
(0 0 0)
(0 0 0)
(0 0 0)
(0 0 0)
(0 0 0)
(0 0 0)
(0 0 0)
(0 0 0)
(0 0 0)
(0 0 0)
(0 0 0)
(0 0 0)
(0 0 0)
(0 0 0)
(0 0 0)
(0 0 0)
(0 0 0)
(0 0 0)
(0 0 0)
(0 0 0)
(0 0 0)
(0 0 0)
(0 0 0)
(0 0 0)
(0 0 0)
(0 0 0)
(0 0 0)
(0 0 0)
(0 0 0)
(0 0 0)
(0 0 0)
(0 0 0)
(0 0 0)
(0 0 0)
(0 0 0)
(0 0 0)
(0 0 0)
(0 0 0)
(0 0 0)
(0 0 0)
(0 0 0)
)
;

boundaryField
{
    outlet
    {
        type            zeroGradient;
    }
    inlet
    {
        type            zeroGradient;
    }
    fixedWalls
    {
        type            zeroGradient;
    }
    emptyWalls
    {
        type            empty;
    }
}


// ************************************************************************* //
