/*--------------------------------*- C++ -*----------------------------------*\
| =========                 |                                                 |
| \\      /  F ield         | OpenFOAM: The Open Source CFD Toolbox           |
|  \\    /   O peration     | Version:  2.2.x                                 |
|   \\  /    A nd           | Web:      www.OpenFOAM.org                      |
|    \\/     M anipulation  |                                                 |
\*---------------------------------------------------------------------------*/
FoamFile
{
    version     2.0;
    format      ascii;
    class       volVectorField;
    location    "0.0002";
    object      U2;
}
// * * * * * * * * * * * * * * * * * * * * * * * * * * * * * * * * * * * * * //

dimensions      [0 1 -1 0 0 0 0];

internalField   nonuniform List<vector> 
4700
(
(0 0 0)
(0 0 0)
(0 0 0)
(0 0 0)
(0 0 0)
(0 0 0)
(0 0 0)
(0 0 0)
(0 0 0)
(0 0 0)
(0 0 0)
(0 0 0)
(0 0 0)
(0 0 0)
(0 0 0)
(0 0 0)
(0 0 0)
(0 0 0)
(0 0 0)
(0 0 0)
(0 0 0)
(0 0 0)
(0 0 0)
(0 0 0)
(0 0 0)
(0 0 0)
(0 0 0)
(0 0 0)
(0 0 0)
(0 0 0)
(0 0 0)
(0 0 0)
(0 0 0)
(0 0 0)
(0 0 0)
(0 0 0)
(0 0 0)
(0 0 0)
(0 0 0)
(0 0 0)
(0 0 0)
(0 0 0)
(0 0 0)
(0 0 0)
(0 0 0)
(0 0 0)
(0 0 0)
(0 0 0)
(0 0 0)
(0 0 0)
(0 0 0)
(0 0 0)
(0 0 0)
(0 0 0)
(0 0 0)
(0 0 0)
(0 0 0)
(0 0 0)
(0 0 0)
(0 0 0)
(0 0 0)
(0 0 0)
(0 0 0)
(0 0 0)
(0 0 0)
(0 0 0)
(0 0 0)
(0 0 0)
(0 0 0)
(0 0 0)
(0 0 0)
(0 0 0)
(0 0 0)
(0 0 0)
(0 0 0)
(0 0 0)
(0 0 0)
(0 0 0)
(0 0 0)
(0 0 0)
(0 0 0)
(0 0 0)
(0 0 0)
(0 0 0)
(0 0 0)
(0 0 0)
(0 0 0)
(0 0 0)
(0 0 0)
(0 0 0)
(0 0 0)
(0 0 0)
(0 0 0)
(0 0 0)
(0 0 0)
(0 0 0)
(0 0 0)
(0 0 0)
(0 0 0)
(0 0 0)
(0 0 0)
(0 0 0)
(0 0 0)
(0 0 0)
(0 0 0)
(0 0 0)
(0 0 0)
(0 0 0)
(0 0 0)
(0 0 0)
(0 0 0)
(0 0 0)
(0 0 0)
(0 0 0)
(0 0 0)
(0 0 0)
(0 0 0)
(0 0 0)
(0 0 0)
(0 0 0)
(0 0 0)
(0 0 0)
(0 0 0)
(0 0 0)
(0 0 0)
(0 0 0)
(0 0 0)
(0 0 0)
(0 0 0)
(0 0 0)
(0 0 0)
(0 0 0)
(0 0 0)
(0 0 0)
(0 0 0)
(0 0 0)
(0 0 0)
(0 0 0)
(0 0 0)
(0 0 0)
(0 0 0)
(0 0 0)
(0 0 0)
(0 0 0)
(0 0 0)
(0 0 0)
(0 0 0)
(0 0 0)
(0 0 0)
(0 0 0)
(0 0 0)
(0 0 0)
(0 0 0)
(0 0 0)
(0 0 0)
(0 0 0)
(0 0 0)
(0 0 0)
(0 0 0)
(0 0 0)
(0 0 0)
(0 0 0)
(0 0 0)
(0 0 0)
(0 0 0)
(0 0 0)
(0 0 0)
(0 0 0)
(0 0 0)
(0 0 0)
(0 0 0)
(0 0 0)
(0 0 0)
(0 0 0)
(0 0 0)
(0 0 0)
(0 0 0)
(0 0 0)
(0 0 0)
(0 0 0)
(0 0 0)
(0 0 0)
(0 0 0)
(0 0 0)
(0 0 0)
(0 0 0)
(0 0 0)
(0 0 0)
(0 0 0)
(0 0 0)
(0 0 0)
(0 0 0)
(0 0 0)
(0 0 0)
(0 0 0)
(0 0 0)
(0 0 0)
(0 0 0)
(0 0 0)
(0 0 0)
(0 0 0)
(0 0 0)
(0 0 0)
(0 0 0)
(0 0 0)
(0 0 0)
(0 0 0)
(0 0 0)
(0 0 0)
(0 0 0)
(0 0 0)
(0 0 0)
(0 0 0)
(0 0 0)
(0 0 0)
(0 0 0)
(0 0 0)
(0 0 0)
(0 0 0)
(0 0 0)
(0 0 0)
(0 0 0)
(0 0 0)
(0 0 0)
(0 0 0)
(0 0 0)
(0 0 0)
(0 0 0)
(0 0 0)
(0 0 0)
(0 0 0)
(0 0 0)
(0 0 0)
(0 0 0)
(0 0 0)
(0 0 0)
(0 0 0)
(0 0 0)
(0 0 0)
(0 0 0)
(0 0 0)
(0 0 0)
(0 0 0)
(0 0 0)
(0 0 0)
(0 0 0)
(0 0 0)
(0 0 0)
(0 0 0)
(0 0 0)
(0 0 0)
(0 0 0)
(0 0 0)
(0 0 0)
(0 0 0)
(0 0 0)
(0 0 0)
(0 0 0)
(0 0 0)
(0 0 0)
(0 0 0)
(0 0 0)
(0 0 0)
(0 0 0)
(0 0 0)
(0 0 0)
(0 0 0)
(0 0 0)
(0 0 0)
(0 0 0)
(0 0 0)
(0 0 0)
(0 0 0)
(0 0 0)
(0 0 0)
(0 0 0)
(0 0 0)
(0 0 0)
(0 0 0)
(0 0 0)
(0 0 0)
(0 0 0)
(0 0 0)
(0 0 0)
(0 0 0)
(0 0 0)
(0 0 0)
(0 0 0)
(0 0 0)
(0 0 0)
(0 0 0)
(0 0 0)
(0 0 0)
(0 0 0)
(0 0 0)
(0 0 0)
(0 0 0)
(0 0 0)
(0 0 0)
(0 0 0)
(0 0 0)
(0 0 0)
(0 0 0)
(0 0 0)
(0 0 0)
(0 0 0)
(0 0 0)
(0 0 0)
(0 0 0)
(0 0 0)
(0 0 0)
(0 0 0)
(0 0 0)
(0 0 0)
(0 0 0)
(0 0 0)
(0 0 0)
(0 0 0)
(0 0 0)
(0 0 0)
(0 0 0)
(0 0 0)
(0 0 0)
(0 0 0)
(0 0 0)
(0 0 0)
(0 0 0)
(0 0 0)
(0 0 0)
(0 0 0)
(0 0 0)
(0 0 0)
(0 0 0)
(0 0 0)
(0 0 0)
(0 0 0)
(0 0 0)
(0 0 0)
(0 0 0)
(0 0 0)
(0 0 0)
(0 0 0)
(0 0 0)
(0 0 0)
(0 0 0)
(0 0 0)
(0 0 0)
(0 0 0)
(0 0 0)
(0 0 0)
(0 0 0)
(0 0 0)
(0 0 0)
(0 0 0)
(0 0 0)
(0 0 0)
(0 0 0)
(0 0 0)
(0 0 0)
(0 0 0)
(0 0 0)
(0 0 0)
(0 0 0)
(0 0 0)
(0 0 0)
(0 0 0)
(0 0 0)
(0 0 0)
(0 0 0)
(0 0 0)
(0 0 0)
(0 0 0)
(0 0 0)
(0 0 0)
(0 0 0)
(0 0 0)
(0 0 0)
(0 0 0)
(0 0 0)
(0 0 0)
(0 0 0)
(0 0 0)
(0 0 0)
(0 0 0)
(0 0 0)
(0 0 0)
(0 0 0)
(0 0 0)
(0 0 0)
(0 0 0)
(0 0 0)
(0 0 0)
(0 0 0)
(0 0 0)
(0 0 0)
(0 0 0)
(0 0 0)
(0 0 0)
(0 0 0)
(0 0 0)
(0 0 0)
(0 0 0)
(0 0 0)
(0 0 0)
(0 0 0)
(0 0 0)
(0 0 0)
(0 0 0)
(0 0 0)
(0 0 0)
(0 0 0)
(0 0 0)
(0 0 0)
(0 0 0)
(0 0 0)
(0 0 0)
(0 0 0)
(0 0 0)
(0 0 0)
(0 0 0)
(0 0 0)
(0 0 0)
(0 0 0)
(0 0 0)
(0 0 0)
(0 0 0)
(0 0 0)
(0 0 0)
(0 0 0)
(0 0 0)
(0 0 0)
(0 0 0)
(0 0 0)
(0 0 0)
(0 0 0)
(0 0 0)
(0 0 0)
(0 0 0)
(0 0 0)
(0 0 0)
(0 0 0)
(0 0 0)
(0 0 0)
(0 0 0)
(0 0 0)
(0 0 0)
(0 0 0)
(0 0 0)
(0 0 0)
(0 0 0)
(0 0 0)
(0 0 0)
(0 0 0)
(0 0 0)
(0 0 0)
(0 0 0)
(0 0 0)
(0 0 0)
(0 0 0)
(0 0 0)
(0 0 0)
(0 0 0)
(0 0 0)
(0 0 0)
(0 0 0)
(0 0 0)
(0 0 0)
(0 0 0)
(0 0 0)
(0 0 0)
(0 0 0)
(0 0 0)
(0 0 0)
(0 0 0)
(0 0 0)
(0 0 0)
(0 0 0)
(0 0 0)
(0 0 0)
(0 0 0)
(0 0 0)
(0 0 0)
(0 0 0)
(0 0 0)
(0 0 0)
(0 0 0)
(0 0 0)
(0 0 0)
(0 0 0)
(0 0 0)
(0 0 0)
(0 0 0)
(0 0 0)
(0 0 0)
(0 0 0)
(0 0 0)
(0 0 0)
(0 0 0)
(0 0 0)
(0 0 0)
(0 0 0)
(0 0 0)
(0 0 0)
(0 0 0)
(0 0 0)
(0 0 0)
(0 0 0)
(0 0 0)
(0 0 0)
(0 0 0)
(0 0 0)
(0 0 0)
(0 0 0)
(0 0 0)
(0 0 0)
(0 0 0)
(0 0 0)
(0 0 0)
(0 0 0)
(0 0 0)
(0 0 0)
(0 0 0)
(0 0 0)
(0 0 0)
(0 0 0)
(0 0 0)
(0 0 0)
(0 0 0)
(0 0 0)
(0 0 0)
(0 0 0)
(0 0 0)
(0 0 0)
(0 0 0)
(0 0 0)
(0 0 0)
(0 0 0)
(0 0 0)
(0 0 0)
(0 0 0)
(0 0 0)
(0 0 0)
(0 0 0)
(0 0 0)
(0 0 0)
(0 0 0)
(0 0 0)
(0 0 0)
(0 0 0)
(0 0 0)
(0 0 0)
(0 0 0)
(0 0 0)
(0 0 0)
(0 0 0)
(0 0 0)
(0 0 0)
(0 0 0)
(0 0 0)
(0 0 0)
(0 0 0)
(0 0 0)
(0 0 0)
(0 0 0)
(0 0 0)
(0 0 0)
(0 0 0)
(0 0 0)
(0 0 0)
(0 0 0)
(0 0 0)
(0 0 0)
(0 0 0)
(0 0 0)
(0 0 0)
(0 0 0)
(0 0 0)
(0 0 0)
(0 0 0)
(0 0 0)
(0 0 0)
(0 0 0)
(0 0 0)
(0 0 0)
(0 0 0)
(0 0 0)
(0 0 0)
(0 0 0)
(0 0 0)
(0 0 0)
(0 0 0)
(0 0 0)
(0 0 0)
(0 0 0)
(0 0 0)
(0 0 0)
(0 0 0)
(0 0 0)
(0 0 0)
(0 0 0)
(0 0 0)
(0 0 0)
(0 0 0)
(0 0 0)
(0 0 0)
(0 0 0)
(0 0 0)
(0 0 0)
(0 0 0)
(0 0 0)
(0 0 0)
(0 0 0)
(0 0 0)
(0 0 0)
(0 0 0)
(0 0 0)
(0 0 0)
(0 0 0)
(0 0 0)
(0 0 0)
(0 0 0)
(0 0 0)
(0 0 0)
(0 0 0)
(0 0 0)
(0 0 0)
(0 0 0)
(0 0 0)
(0 0 0)
(0 0 0)
(0 0 0)
(0 0 0)
(0 0 0)
(0 0 0)
(0 0 0)
(0 0 0)
(0 0 0)
(0 0 0)
(0 0 0)
(0 0 0)
(0 0 0)
(0 0 0)
(0 0 0)
(0 0 0)
(0 0 0)
(0 0 0)
(0 0 0)
(0 0 0)
(0 0 0)
(0 0 0)
(0 0 0)
(0 0 0)
(0 0 0)
(0 0 0)
(0 0 0)
(0 0 0)
(0 0 0)
(0 0 0)
(0 0 0)
(0 0 0)
(0 0 0)
(0 0 0)
(0 0 0)
(0 0 0)
(0 0 0)
(0 0 0)
(0 0 0)
(0 0 0)
(0 0 0)
(0 0 0)
(0 0 0)
(0 0 0)
(0 0 0)
(0 0 0)
(0 0 0)
(0 0 0)
(0 0 0)
(0 0 0)
(0 0 0)
(0 0 0)
(0 0 0)
(0 0 0)
(0 0 0)
(0 0 0)
(0 0 0)
(0 0 0)
(0 0 0)
(0 0 0)
(0 0 0)
(0 0 0)
(0 0 0)
(0 0 0)
(0 0 0)
(0 0 0)
(0 0 0)
(0 0 0)
(0 0 0)
(0 0 0)
(0 0 0)
(0 0 0)
(0 0 0)
(0 0 0)
(0 0 0)
(0 0 0)
(0 0 0)
(0 0 0)
(0 0 0)
(0 0 0)
(0 0 0)
(0 0 0)
(0 0 0)
(0.000100909 0.000112691 -0.0115828)
(0.000428995 0.00167308 -0.0576273)
(0.000561059 0.00285176 -0.0553395)
(0.000776535 0.00261911 -0.0563883)
(0.000445866 0.00194326 -0.0585376)
(-0.000119436 0.00170326 -0.0596612)
(-0.000445572 0.00162141 -0.058609)
(-0.000156669 0.00034042 -0.0231637)
(0 0 0)
(0 0 0)
(0.00161935 0.000470952 -0.0577784)
(0.0129746 0.0129499 -0.283499)
(0.00776452 0.0213303 -0.299471)
(-4.09775e-05 0.020984 -0.299328)
(-0.0023612 0.017893 -0.297953)
(-0.00254429 0.0156022 -0.293373)
(-0.00601922 0.0121775 -0.295121)
(-0.00250945 0.0018737 -0.115458)
(0 0 0)
(0 0 0)
(0.00275579 0.000529086 -0.0557065)
(0.0209469 0.00758883 -0.299003)
(0.0108128 0.0106646 -0.313915)
(0.0014904 0.012763 -0.318753)
(-0.00257034 0.0141814 -0.321188)
(-0.00629739 0.0138547 -0.311345)
(-0.0125885 0.0082456 -0.303164)
(-0.00446067 0.00119403 -0.115109)
(0 0 0)
(0 0 0)
(0.00260331 0.000691078 -0.0565581)
(0.0208713 0.000316139 -0.298966)
(0.0128403 0.00162543 -0.319412)
(0.00359869 0.00381743 -0.331495)
(-0.00128723 0.00550265 -0.333566)
(-0.00816632 0.00657572 -0.324834)
(-0.0164576 0.00288467 -0.304531)
(-0.00525445 0.000198385 -0.115257)
(0 0 0)
(0 0 0)
(0.00202819 0.000408632 -0.0583128)
(0.0181956 -0.00200916 -0.298486)
(0.0141451 -0.00241197 -0.321394)
(0.00535 -0.000966054 -0.334671)
(0.000216407 -0.000134084 -0.337663)
(-0.0087533 0.000698718 -0.332217)
(-0.0188746 9.42255e-05 -0.303399)
(-0.00555064 -9.76363e-05 -0.113371)
(0 0 0)
(0 0 0)
(0.00177496 -8.0549e-05 -0.0593841)
(0.0158841 -0.00272539 -0.294259)
(0.0138511 -0.00639517 -0.311029)
(0.00587072 -0.00775197 -0.326644)
(0.000384923 -0.00877667 -0.32687)
(-0.00790315 -0.00841736 -0.322318)
(-0.0173851 -0.00467285 -0.297684)
(-0.00508553 -0.000197916 -0.113433)
(0 0 0)
(0 0 0)
(0.0016096 -0.000420942 -0.0585739)
(0.0121544 -0.00638762 -0.294575)
(0.00894039 -0.0130801 -0.301208)
(0.00297171 -0.0169546 -0.308655)
(-0.00054627 -0.0187537 -0.302555)
(-0.00469095 -0.0175435 -0.298029)
(-0.010669 -0.0106743 -0.287853)
(-0.00330423 -0.000912817 -0.113888)
(0 0 0)
(0 0 0)
(0.000329211 -0.000155521 -0.0231538)
(0.00179732 -0.00250208 -0.115205)
(0.00131731 -0.00452267 -0.114237)
(0.000226111 -0.00561991 -0.114848)
(-0.00019922 -0.00566895 -0.112466)
(-0.000128456 -0.00512875 -0.113025)
(-0.000865779 -0.00330708 -0.113833)
(-0.000338997 -0.000339487 -0.0453379)
(0 0 0)
(0 0 0)
(0 0 0)
(0 0 0)
(0 0 0)
(0 0 0)
(0 0 0)
(0 0 0)
(0 0 0)
(0 0 0)
(0 0 0)
(0 0 0)
(0 0 0)
(0 0 0)
(0 0 0)
(0 0 0)
(0 0 0)
(0 0 0)
(0 0 0)
(0 0 0)
(0 0 0)
(0 0 0)
(0.00010181 0.000160993 -0.0147141)
(-0.00260154 0.00105686 -0.0755468)
(-0.000911792 0.00824229 -0.0561411)
(0.00495337 0.00701897 -0.0607623)
(0.00472578 0.00325807 -0.0738801)
(0.00012781 0.000522968 -0.0840225)
(-0.00242491 0.00209295 -0.0762757)
(-0.000644027 0.000401081 -0.0294506)
(0 0 0)
(0 0 0)
(0.000846893 -0.00212016 -0.0761685)
(0.0206426 0.0221466 -0.786934)
(0.0293032 0.0820669 0.527239)
(0.0185927 0.0842082 0.326883)
(0.00656446 0.0577595 -0.347858)
(-0.00359521 0.0316639 -1.09999)
(-0.0176392 0.0213162 -0.50461)
(-0.00545435 0.000890739 -0.146371)
(0 0 0)
(0 0 0)
(0.00756241 -0.00092082 -0.0584791)
(0.0759823 0.0294374 0.412086)
(0.0452358 0.0460837 -0.140966)
(0.0243022 0.065305 -0.248984)
(-0.00451385 0.0617897 -0.378243)
(-0.0329191 0.0490067 -0.680664)
(-0.0474908 0.0135999 -0.178322)
(-0.0112987 0.00101988 -0.140025)
(0 0 0)
(0 0 0)
(0.00664982 0.00408123 -0.062366)
(0.0812724 0.0168061 0.210457)
(0.065095 0.0235608 -0.249782)
(0.0278199 0.0304375 -0.290795)
(-0.0109262 0.0256643 -0.331629)
(-0.0504695 0.0285917 -0.409127)
(-0.066061 -0.00140341 -0.123509)
(-0.0129183 -0.00151301 -0.145076)
(0 0 0)
(0 0 0)
(0.00371268 0.00408448 -0.0726164)
(0.059656 0.00634235 -0.314822)
(0.0625659 -0.00780695 -0.368177)
(0.0255789 -0.00973422 -0.309486)
(-0.00678394 -0.0135721 -0.294452)
(-0.0587043 -0.00504634 -0.199246)
(-0.0838052 -0.00733885 -0.024736)
(-0.0137009 -0.00189848 -0.131556)
(0 0 0)
(0 0 0)
(0.00116147 0.000391389 -0.0819494)
(0.0318647 -0.00548595 -0.980625)
(0.0489883 -0.0374437 -0.64816)
(0.0214351 -0.0489093 -0.319782)
(-0.00595591 -0.060018 -0.347215)
(-0.0444904 -0.0528781 -0.275566)
(-0.0643092 -0.0199856 -0.244472)
(-0.0104111 0.00101842 -0.13558)
(0 0 0)
(0 0 0)
(0.00203571 -0.00208751 -0.0760786)
(0.0172599 -0.0194268 -0.489487)
(0.018156 -0.0499573 -0.201575)
(-0.000257976 -0.0732166 0.247236)
(-0.0105745 -0.0802613 0.0549891)
(-0.0175433 -0.066778 -0.189374)
(-0.0228499 -0.0230907 -0.502747)
(-0.00407461 -0.000377834 -0.144826)
(0 0 0)
(0 0 0)
(0.000333195 -0.00062369 -0.0294317)
(-0.000160085 -0.00531665 -0.145333)
(0.00110429 -0.0107895 -0.134332)
(-0.00138038 -0.0158458 -0.146337)
(-0.0021198 -0.0139301 -0.12799)
(0.00195203 -0.0108562 -0.1332)
(0.000113004 -0.00412854 -0.144379)
(-0.000539589 -0.000564098 -0.0572377)
(0 0 0)
(0 0 0)
(0 0 0)
(0 0 0)
(0 0 0)
(0 0 0)
(0 0 0)
(0 0 0)
(0 0 0)
(0 0 0)
(0 0 0)
(0 0 0)
(0 0 0)
(0 0 0)
(0 0 0)
(0 0 0)
(0 0 0)
(0 0 0)
(0 0 0)
(0 0 0)
(0 0 0)
(0 0 0)
(0.000938277 0.00115463 -0.0172698)
(-0.026255 0.103284 -0.0846563)
(-0.0243504 -0.180784 -0.0790458)
(0.0300907 -0.140111 -0.0795555)
(0.0408353 0.00011424 -0.0869605)
(0.00568968 0.16264 -0.0905104)
(-0.0158012 0.0329453 -0.0873195)
(-0.00231037 0.00071641 -0.0343925)
(0 0 0)
(0 0 0)
(0.102511 -0.0221634 -0.0864815)
(-0.972091 -0.85257 -0.419516)
(-1.26131 -0.0862115 -0.417986)
(0.926556 -0.00353206 -0.422285)
(1.65199 0.0405197 -0.396002)
(0.158435 0.290915 -0.376838)
(-0.795745 -0.225223 -0.420932)
(-0.0724062 -0.007556 -0.168976)
(0 0 0)
(0 0 0)
(-0.158419 -0.0221708 -0.0844436)
(-0.0993527 -1.12818 -0.403458)
(0.739293 0.849383 -0.432156)
(0.234609 0.65744 -0.420161)
(0.442306 0.00255339 -0.38735)
(-0.246879 -0.706951 -0.359203)
(-0.376411 -0.394165 -0.400282)
(0.0754563 -0.000330519 -0.168112)
(0 0 0)
(0 0 0)
(-0.115731 0.0233566 -0.0826895)
(-0.0151199 0.75882 -0.409963)
(0.533484 0.218717 -0.421533)
(0.063185 0.0382309 -0.428069)
(0.128175 -0.0776349 -0.414377)
(-0.231979 -0.508045 -0.389449)
(-0.0723627 -0.128747 -0.393242)
(0.0950283 -0.010756 -0.166027)
(0 0 0)
(0 0 0)
(-0.00680216 0.0332631 -0.0844987)
(0.0370721 1.35694 -0.401701)
(0.0140492 0.41345 -0.385877)
(-0.0702912 0.0406201 -0.407738)
(-0.103223 0.0404092 -0.41533)
(-0.284895 -0.138604 -0.407278)
(0.107455 0.127514 -0.413275)
(0.135617 -0.012217 -0.166747)
(0 0 0)
(0 0 0)
(0.138366 0.00655587 -0.0866804)
(0.278249 0.178251 -0.395586)
(-0.687354 -0.201473 -0.345927)
(-0.315964 -0.596631 -0.353119)
(-0.048709 -0.360805 -0.390975)
(-0.128707 -0.0203225 -0.405654)
(0.0334212 0.512391 -0.413073)
(0.0378605 0.0173186 -0.167708)
(0 0 0)
(0 0 0)
(0.0296621 -0.0126861 -0.0868063)
(-0.185251 -0.672555 -0.421977)
(-0.788984 -0.381841 -0.398773)
(-0.241548 0.0275672 -0.375182)
(0.443256 -0.0667724 -0.411014)
(0.593033 0.0278 -0.412476)
(0.157796 0.0985185 -0.418904)
(-0.0770469 0.0084006 -0.169216)
(0 0 0)
(0 0 0)
(0.000437044 -0.00219638 -0.0344255)
(-0.015064 -0.0658977 -0.169554)
(0.00281241 0.0606797 -0.168123)
(-0.00891341 0.260732 -0.163637)
(-0.017039 0.16923 -0.165478)
(0.0214589 0.062566 -0.167228)
(0.0115086 -0.0775123 -0.169022)
(-0.00157228 -0.0018163 -0.0682663)
(0 0 0)
(0 0 0)
(0 0 0)
(0 0 0)
(0 0 0)
(0 0 0)
(0 0 0)
(0 0 0)
(0 0 0)
(0 0 0)
(0 0 0)
(0 0 0)
(0 0 0)
(0 0 0)
(0 0 0)
(0 0 0)
(0 0 0)
(0 0 0)
(0 0 0)
(0 0 0)
(0 0 0)
(0 0 0)
(-0.00011752 0.000191697 -0.0144007)
(-0.00602458 -0.000339533 -0.0705059)
(-0.00334522 0.00658119 -0.0658414)
(0.00879753 0.00593651 -0.0667194)
(0.0109101 -0.00299161 -0.0800761)
(0.000662385 -0.00907464 -0.0788209)
(-0.00484178 0.000112406 -0.0671588)
(-0.00107242 -0.000114427 -0.0278066)
(0 0 0)
(0 0 0)
(-0.00132485 -0.00285444 -0.073335)
(-0.0286156 -0.016662 -0.357343)
(0.0111816 0.0835385 -0.0408528)
(0.0454807 0.0812707 -0.0598689)
(0.0349544 0.0092701 -0.892542)
(0.0240284 -0.0532526 -0.793097)
(-0.00147967 -0.0142447 -0.0703759)
(-0.00642791 -0.00233237 -0.133945)
(0 0 0)
(0 0 0)
(0.00215114 -0.0030759 -0.0775336)
(0.055029 0.00981015 -0.608554)
(0.062745 0.0656899 -0.215812)
(0.00900025 0.0847685 -0.315583)
(-0.0308992 0.0618745 -0.450587)
(-0.0164729 0.0304846 -0.402094)
(-0.00274542 -0.0334439 -0.531488)
(-0.00325493 -0.00192753 -0.144338)
(0 0 0)
(0 0 0)
(0.00308112 0.00334382 -0.07469)
(0.0675935 0.0320643 -0.589662)
(0.0837646 -0.00783071 -0.321805)
(0.0242965 0.0172671 -0.331494)
(-0.0414574 0.0361067 -0.35244)
(-0.0710079 0.0507039 -0.299696)
(-0.038317 -0.00535761 -0.563779)
(6.70976e-05 -0.002258 -0.132558)
(0 0 0)
(0 0 0)
(-0.000723507 0.00619497 -0.0738782)
(0.0119182 0.0144476 -0.636853)
(0.0483999 -0.0698069 -0.393587)
(0.0460126 -0.083539 -0.330276)
(-0.0027195 -0.0439276 -0.332913)
(-0.0555563 -0.00169026 -0.407387)
(-0.0610986 0.0111195 -0.621208)
(-0.00706144 -0.00054824 -0.147682)
(0 0 0)
(0 0 0)
(-0.00553955 0.00216101 -0.068392)
(-0.0589156 0.0138815 -0.181244)
(-0.0110984 -0.0163895 -0.233853)
(0.0483878 -0.0811032 -0.226504)
(0.0397951 -0.0649723 -0.212408)
(-0.0154797 -0.0448383 -0.336346)
(-0.0350778 -0.0100096 -0.425923)
(-0.00439583 0.0026081 -0.146098)
(0 0 0)
(0 0 0)
(9.87614e-06 -0.00239782 -0.066753)
(-0.0194941 0.00197103 -0.0620859)
(-0.0487744 0.0226633 -0.585313)
(-0.0058101 -0.00160059 -0.790069)
(0.0319339 -0.0374835 -0.566306)
(-0.00195219 -0.0380133 -0.476797)
(-0.0029351 -0.00429509 -0.204503)
(0.000365158 0.00173823 -0.138965)
(0 0 0)
(0 0 0)
(-0.000100339 -0.000933562 -0.0278732)
(-0.0032528 -0.00404387 -0.136188)
(-0.00314634 -0.00181282 -0.151035)
(-0.00285552 0.00477712 -0.130473)
(-0.000178664 -0.00640167 -0.150308)
(0.00379661 -0.0049078 -0.148143)
(0.00235367 0.00021606 -0.139354)
(-3.75588e-05 -0.000120784 -0.0566702)
(0 0 0)
(0 0 0)
(0 0 0)
(0 0 0)
(0 0 0)
(0 0 0)
(0 0 0)
(0 0 0)
(0 0 0)
(0 0 0)
(0 0 0)
(0 0 0)
(0 0 0)
(0 0 0)
(0 0 0)
(0 0 0)
(0 0 0)
(0 0 0)
(0 0 0)
(0 0 0)
(0 0 0)
(0 0 0)
(0.000495154 0.00153498 -0.0172031)
(-0.0387711 0.104781 -0.084241)
(-0.031795 -0.255067 -0.0859208)
(0.0616517 -0.211184 -0.0854276)
(0.0701992 0.121468 -0.0850193)
(-0.0144593 0.266257 -0.083899)
(-0.0326138 -0.0304951 -0.0834676)
(-0.000497815 -0.00104412 -0.0339406)
(0 0 0)
(0 0 0)
(0.101704 -0.0133962 -0.0874138)
(-1.38029 -0.553278 -0.434521)
(-1.66507 -0.2153 -0.426772)
(2.10423 -0.00922524 -0.410988)
(2.78787 0.102514 -0.417962)
(-0.753769 0.302808 -0.441017)
(-1.39336 0.0084199 -0.421133)
(0.0568766 0.000908084 -0.167814)
(0 0 0)
(0 0 0)
(-0.102409 -0.0184644 -0.0944929)
(-0.284169 -0.856788 -0.402819)
(0.411125 1.18128 -0.408367)
(0.531206 1.01229 -0.39572)
(0.562397 -0.59395 -0.402316)
(-0.155772 -1.33257 -0.44259)
(-0.409845 0.161696 -0.428325)
(-0.00859183 -0.00223816 -0.167678)
(0 0 0)
(0 0 0)
(-0.0624699 0.0169753 -0.0904826)
(-0.0743856 0.787779 -0.40006)
(0.253602 0.40829 -0.410051)
(0.105457 0.0534439 -0.389488)
(0.0817358 -0.19152 -0.377419)
(-0.00322838 -0.488427 -0.400325)
(-0.0406976 -0.0322709 -0.431593)
(-0.00367535 -0.00596085 -0.170335)
(0 0 0)
(0 0 0)
(0.0583726 0.0209846 -0.0821249)
(0.0658401 0.819693 -0.43948)
(-0.314963 0.315793 -0.439613)
(-0.126388 -0.0814119 -0.411633)
(-0.0310676 -0.114501 -0.385032)
(0.0148755 -0.0877878 -0.386739)
(0.0582651 -0.0127526 -0.404154)
(0.0115629 0.00490012 -0.172438)
(0 0 0)
(0 0 0)
(0.099435 -0.00555459 -0.0779928)
(0.163746 -0.445094 -0.47645)
(-0.629899 0.0223829 -0.496944)
(-0.321437 -0.0865576 -0.47401)
(0.0715945 -0.110095 -0.423211)
(0.0973388 0.0564559 -0.408945)
(0.0584518 0.0493176 -0.420616)
(0.00479388 0.00465916 -0.172667)
(0 0 0)
(0 0 0)
(-0.0345633 -0.0111042 -0.0824288)
(0.107333 -0.486212 -0.430121)
(0.0440924 -0.193372 -0.42224)
(-0.264709 0.123405 -0.442445)
(0.108734 0.103846 -0.403463)
(0.176196 0.0603875 -0.419591)
(0.0115661 0.0128775 -0.434205)
(-0.00811274 0.00190822 -0.171504)
(0 0 0)
(0 0 0)
(-0.000863587 -3.64778e-05 -0.0340106)
(0.00214068 0.0666009 -0.170274)
(-0.00336272 -0.0456194 -0.173016)
(-0.00783848 0.0514043 -0.172687)
(0.00485334 0.0684859 -0.173657)
(0.00497756 0.00525693 -0.173199)
(0.00210091 -0.00816456 -0.171689)
(-4.88287e-05 -7.55163e-05 -0.068757)
(0 0 0)
(0 0 0)
(0 0 0)
(0 0 0)
(0 0 0)
(0 0 0)
(0 0 0)
(0 0 0)
(0 0 0)
(0 0 0)
(0 0 0)
(0 0 0)
(0 0 0)
(0 0 0)
(0 0 0)
(0 0 0)
(0 0 0)
(0 0 0)
(0 0 0)
(0 0 0)
(0 0 0)
(0 0 0)
(-0.000371512 0.000334027 -0.0139987)
(-0.00552577 0.000525307 -0.0654267)
(-0.00284547 0.00582739 -0.081377)
(0.00797357 0.00312926 -0.0785152)
(0.00985077 -0.00377482 -0.0667528)
(-0.00047758 -0.00604579 -0.0619221)
(-0.00457958 -7.38954e-06 -0.0718434)
(-0.0005837 -0.000521349 -0.0286537)
(0 0 0)
(0 0 0)
(-0.00180344 0.00119661 -0.0685474)
(-0.0419514 0.00361848 0.165959)
(-0.0193984 0.0769702 -0.886452)
(0.036244 0.0462511 -0.731983)
(0.0551931 -0.0160745 -0.121702)
(0.0160941 -0.0293303 0.219585)
(-0.0236581 -0.00685071 -0.449294)
(-0.00476101 -0.00348145 -0.142489)
(0 0 0)
(0 0 0)
(-0.00382922 -0.00197724 -0.096296)
(-0.0138317 0.0043299 -1.79122)
(0.0141399 0.0581038 -0.658536)
(-0.0105392 0.0483312 -0.452845)
(0.0172428 0.00818299 -0.293716)
(0.00394559 -0.00897401 -0.0949953)
(-0.0314588 -0.0143588 -0.0534595)
(-0.00325969 9.84904e-05 -0.131288)
(0 0 0)
(0 0 0)
(-0.00236222 -0.00321291 -0.0889506)
(0.0307511 0.015586 -1.50035)
(0.0365455 0.000564176 -0.462377)
(-0.0251451 0.0196867 -0.417177)
(-0.0206966 0.0103509 -0.432578)
(-0.0043424 -0.00462333 -0.569762)
(-0.0120323 -0.0144879 -0.361976)
(-0.00192035 0.001601 -0.146156)
(0 0 0)
(0 0 0)
(0.00229066 -0.000493174 -0.0593959)
(0.033645 0.0188574 0.238006)
(0.02013 -0.0101948 -0.204573)
(-0.00624076 0.00962841 -0.357536)
(-0.0147158 0.00835664 -0.43088)
(-0.0201905 0.00430117 -0.519147)
(-0.0147418 -0.00372286 -0.45312)
(0.0015914 0.00147889 -0.146643)
(0 0 0)
(0 0 0)
(0.00335926 0.00208891 -0.0483059)
(0.0416523 -0.00634487 1.18023)
(0.0249684 -0.0286253 0.0894435)
(-0.00878989 -0.0232078 -0.320089)
(-0.0255926 -0.0273267 -0.445682)
(-0.0161976 -0.0128609 -0.44148)
(-0.0112184 0.00563863 -0.370795)
(-0.000406228 0.00150116 -0.145258)
(0 0 0)
(0 0 0)
(6.87601e-05 0.00084744 -0.0706518)
(-0.00761687 -0.0130887 -0.421568)
(0.00109851 -0.0227264 -0.401928)
(-0.00621418 -0.0383404 -0.456791)
(-0.00454865 -0.022641 -0.484011)
(0.012535 -0.012183 -0.371151)
(0.00288215 0.000594024 -0.346875)
(0.000239987 0.000775803 -0.144224)
(0 0 0)
(0 0 0)
(-0.000196563 -0.000166156 -0.028698)
(2.76569e-05 -0.000713437 -0.146142)
(-0.000465517 0.00299926 -0.144892)
(-0.00201705 -0.00205227 -0.151071)
(0.000228514 0.00234958 -0.146759)
(0.00162595 -0.000168341 -0.145387)
(0.000825619 0.000247876 -0.144269)
(9.85306e-05 9.76962e-05 -0.0577698)
(0 0 0)
(0 0 0)
(0 0 0)
(0 0 0)
(0 0 0)
(0 0 0)
(0 0 0)
(0 0 0)
(0 0 0)
(0 0 0)
(0 0 0)
(0 0 0)
(0 0 0)
(0 0 0)
(0 0 0)
(0 0 0)
(0 0 0)
(0 0 0)
(0 0 0)
(0 0 0)
(0 0 0)
(0 0 0)
(-0.00115919 0.000836296 -0.0171737)
(-0.0173135 -0.0130351 -0.086829)
(-0.00684628 -0.132317 -0.0985876)
(0.0304546 -0.123286 -0.096068)
(0.0325271 0.0672375 -0.0804411)
(-0.00690965 0.135904 -0.0756434)
(-0.01562 -0.00729763 -0.0846411)
(-0.000416432 -0.00127375 -0.0347555)
(0 0 0)
(0 0 0)
(-0.0205447 0.0264765 -0.0857489)
(-0.728749 0.997723 -0.452352)
(-0.519289 0.0383543 -0.386918)
(1.03919 0.0482393 -0.403006)
(1.37113 0.0564327 -0.451979)
(-0.354956 0.0804463 -0.488808)
(-0.689371 -0.326149 -0.432349)
(0.0100288 -0.014351 -0.173688)
(0 0 0)
(0 0 0)
(0.182057 0.0131611 -0.0976581)
(-0.15058 0.952212 -0.412333)
(-0.981711 0.69835 -0.398448)
(0.126069 0.608038 -0.401499)
(0.141735 -0.229965 -0.436559)
(-0.405983 -0.389218 -0.437626)
(-0.165973 0.0408909 -0.448814)
(0.125049 0.00214375 -0.170404)
(0 0 0)
(0 0 0)
(0.174261 -0.0443914 -0.09799)
(-0.0882697 -1.34151 -0.427437)
(-0.839448 -0.0303746 -0.406475)
(0.108033 -0.0313183 -0.399567)
(0.251628 -0.0530996 -0.40744)
(-0.0752549 -0.0343759 -0.404524)
(-0.273592 0.381538 -0.442446)
(-0.00628394 0.0139499 -0.172528)
(0 0 0)
(0 0 0)
(-0.0665051 -0.0476106 -0.0822369)
(-0.0128473 -2.09126 -0.438176)
(0.291269 -0.210182 -0.441532)
(0.0861594 -0.180711 -0.410555)
(0.129026 -0.105396 -0.399381)
(0.0382463 -0.237089 -0.396367)
(-0.0980315 -0.0109641 -0.446376)
(-0.0305 0.00391141 -0.174738)
(0 0 0)
(0 0 0)
(-0.203305 0.00842087 -0.0751082)
(-0.139416 0.260704 -0.477951)
(0.818974 0.247083 -0.460291)
(0.193744 0.0176718 -0.420922)
(0.193651 -0.0541552 -0.40781)
(0.0182187 -0.0973344 -0.406307)
(-0.021404 -0.0581106 -0.434478)
(0.000871909 0.00146711 -0.174668)
(0 0 0)
(0 0 0)
(-0.0154291 0.0230425 -0.0836968)
(0.188143 1.02476 -0.427094)
(0.044999 0.230622 -0.451316)
(-0.200858 0.17857 -0.447798)
(0.0118968 0.0199904 -0.447472)
(0.0310455 -0.0203707 -0.434747)
(0.00334575 0.00513434 -0.437403)
(-0.00206493 0.00074798 -0.174482)
(0 0 0)
(0 0 0)
(-0.000217069 0.000677915 -0.0347025)
(0.00463916 0.0320062 -0.17303)
(0.00327014 -0.0686885 -0.170348)
(-0.00527252 0.00800406 -0.173426)
(-0.00275125 0.0119911 -0.175267)
(0.00152736 0.00136643 -0.174804)
(0.000716192 -0.00200598 -0.174518)
(6.09654e-05 7.64773e-05 -0.0697971)
(0 0 0)
(0 0 0)
(0 0 0)
(0 0 0)
(0 0 0)
(0 0 0)
(0 0 0)
(0 0 0)
(0 0 0)
(0 0 0)
(0 0 0)
(0 0 0)
(0 0 0)
(0 0 0)
(0 0 0)
(0 0 0)
(0 0 0)
(0 0 0)
(0 0 0)
(0 0 0)
(0 0 0)
(0 0 0)
(-0.000269829 0.000245838 -0.0140839)
(0.00239772 0.0025173 -0.068507)
(0.00167593 -0.00421744 -0.0998064)
(-0.00298261 -0.0038295 -0.0919327)
(-0.00169463 0.00119237 -0.0601151)
(0.0017962 0.00309275 -0.0478714)
(0.00134857 -0.000665325 -0.0718552)
(-8.16916e-05 -0.00053052 -0.02916)
(0 0 0)
(0 0 0)
(0.000781017 0.0081211 -0.065155)
(-0.0269764 0.0379883 0.264751)
(-0.052829 0.0219382 -1.95568)
(0.0101772 -0.0166874 -1.69314)
(0.0288853 -0.00557255 0.220474)
(-0.0104557 -0.0176414 1.3406)
(-0.0195764 -0.00831606 -0.386979)
(0.000374436 -0.00652064 -0.146641)
(0 0 0)
(0 0 0)
(-0.00964284 0.00342663 -0.0854956)
(-0.0609472 0.00576097 -1.10708)
(-0.0311006 0.0441694 -0.5829)
(-0.0354418 0.00655528 -0.442809)
(-0.0144741 -0.029047 -0.201183)
(0.00518205 -0.0578331 0.156009)
(-0.00262789 -0.000185869 -0.309986)
(-0.00311591 -0.00102019 -0.139653)
(0 0 0)
(0 0 0)
(-0.00537055 -0.0119053 -0.0824429)
(-0.0233985 -0.047459 -0.962568)
(-0.0323914 -0.0170873 -0.435552)
(-0.0553662 0.00113727 -0.379742)
(-0.0334921 -0.0093256 -0.294196)
(0.0215438 -0.0107823 -0.119264)
(0.0316775 0.00596605 0.00840658)
(-0.00167349 0.00579599 -0.141807)
(0 0 0)
(0 0 0)
(0.00527499 -0.0115573 -0.0673304)
(0.0418995 -0.0625271 -0.10078)
(-0.00835584 -0.0268048 -0.281984)
(-0.0348507 0.0159415 -0.368646)
(-0.0256547 0.0128917 -0.353758)
(0.0227211 0.0245897 -0.301141)
(0.0303929 0.00540523 -0.0333768)
(-0.000408273 0.0033433 -0.145771)
(0 0 0)
(0 0 0)
(0.00925926 0.00238029 -0.0606857)
(0.0711138 -0.0353804 0.439497)
(0.015967 -0.0347855 -0.0202086)
(-0.0306472 0.00466635 -0.377192)
(-0.0249878 0.0172558 -0.377962)
(0.0137672 0.0290984 -0.393105)
(0.0208989 0.00285472 -0.362061)
(0.0010614 0.00102946 -0.146127)
(0 0 0)
(0 0 0)
(-0.00110036 0.00552139 -0.0729077)
(-0.00616881 0.00785466 -0.416857)
(0.0266511 -0.0170372 0.0303127)
(0.0138895 -0.00757716 0.0771311)
(-0.000293857 0.0134844 -0.0324221)
(0.00848646 0.0204515 -0.362651)
(0.00579105 0.00420978 -0.361133)
(0.000296353 0.000547836 -0.146089)
(0 0 0)
(0 0 0)
(-0.000281362 0.000431475 -0.0290901)
(-0.00333224 0.00751113 -0.142751)
(-0.000845398 0.00390377 -0.125945)
(0.00206447 -0.00204223 -0.136589)
(0.00136505 0.000642474 -0.145529)
(0.000906155 0.00132319 -0.146054)
(0.000481405 0.000357568 -0.146084)
(7.59754e-05 9.56263e-05 -0.0584406)
(0 0 0)
(0 0 0)
(0 0 0)
(0 0 0)
(0 0 0)
(0 0 0)
(0 0 0)
(0 0 0)
(0 0 0)
(0 0 0)
(0 0 0)
(0 0 0)
(0 0 0)
(0 0 0)
(0 0 0)
(0 0 0)
(0 0 0)
(0 0 0)
(0 0 0)
(0 0 0)
(0 0 0)
(0 0 0)
(-0.00201115 -0.00104533 -0.0176892)
(0.0276784 -0.156367 -0.0894515)
(0.0323999 0.181804 -0.0901977)
(-0.0344851 0.145687 -0.092176)
(-0.04201 -0.0563642 -0.0888489)
(0.00763178 -0.197751 -0.0846142)
(0.0211979 0.00198254 -0.0859813)
(0.000168377 -0.00106623 -0.0352391)
(0 0 0)
(0 0 0)
(-0.159389 0.0597972 -0.0850611)
(1.04406 2.02596 -0.428682)
(1.62389 0.0851757 -0.459648)
(-1.22092 -0.00664389 -0.452789)
(-1.87018 -0.031146 -0.425789)
(0.300198 -0.265051 -0.4182)
(0.970265 -0.365724 -0.438245)
(-0.00704053 -0.0240681 -0.17798)
(0 0 0)
(0 0 0)
(0.359648 0.0521852 -0.0763442)
(-0.0152313 2.63489 -0.465314)
(-1.83499 -0.915233 -0.42155)
(-0.235791 -0.692059 -0.41566)
(-0.414342 0.298389 -0.412311)
(-0.296526 1.00399 -0.390085)
(0.294324 -0.409783 -0.437973)
(0.14785 -0.00657089 -0.180033)
(0 0 0)
(0 0 0)
(0.315972 -0.0911559 -0.0836733)
(-0.0936197 -2.83178 -0.447875)
(-1.60746 -0.384174 -0.393764)
(-0.014991 -0.0682706 -0.408334)
(0.00612968 0.0831155 -0.422408)
(-0.404853 0.399615 -0.414819)
(-0.0460292 0.0519472 -0.431964)
(0.160052 0.022612 -0.177025)
(0 0 0)
(0 0 0)
(-0.131202 -0.108971 -0.094402)
(-0.0777708 -4.43407 -0.41679)
(0.621658 -0.715128 -0.374223)
(0.160044 -0.16572 -0.392918)
(0.0664328 -0.0185442 -0.419936)
(-0.294157 0.0291541 -0.42923)
(-0.0457356 0.366827 -0.439761)
(0.117877 0.0102299 -0.175691)
(0 0 0)
(0 0 0)
(-0.393483 0.0151239 -0.0949341)
(-0.425338 0.644212 -0.388532)
(1.85015 -0.112651 -0.326345)
(0.595718 -0.469229 -0.354671)
(0.203036 -0.404145 -0.404708)
(-0.00527698 -0.0456668 -0.42955)
(-0.0614054 0.269444 -0.439197)
(0.000302205 0.00161565 -0.175817)
(0 0 0)
(0 0 0)
(-0.00455533 0.0477972 -0.088477)
(-0.275418 2.07573 -0.441847)
(-0.512578 0.544848 -0.443163)
(-0.164285 0.122601 -0.426481)
(0.467818 -0.00108594 -0.437755)
(0.37518 -0.0615128 -0.438431)
(-0.00349557 -0.0022762 -0.440115)
(-0.000468032 0.000617374 -0.175897)
(0 0 0)
(0 0 0)
(-0.000880791 0.000798675 -0.0352177)
(-0.022462 0.00701864 -0.175793)
(-0.00833791 0.106957 -0.173892)
(0.0184867 0.206843 -0.173578)
(0.0102381 0.164825 -0.175133)
(0.00236225 0.000828897 -0.175691)
(0.000701988 -0.000418197 -0.175865)
(4.90141e-05 6.4518e-05 -0.0703517)
(0 0 0)
(0 0 0)
(0 0 0)
(0 0 0)
(0 0 0)
(0 0 0)
(0 0 0)
(0 0 0)
(0 0 0)
(0 0 0)
(0 0 0)
(0 0 0)
(0 0 0)
(0 0 0)
(0 0 0)
(0 0 0)
(0 0 0)
(0 0 0)
(0 0 0)
(0 0 0)
(0 0 0)
(0 0 0)
(-4.33808e-05 5.04161e-05 -0.0152231)
(0.00130058 0.000881899 -0.0808698)
(0.00156714 -0.00097145 -0.0612018)
(-0.00147258 -0.002361 -0.0655942)
(-0.00263263 -0.00122321 -0.0793457)
(-6.34945e-05 -0.00186807 -0.0856458)
(0.00135631 -0.000862881 -0.0738004)
(0.000181702 -0.000249438 -0.0295816)
(0 0 0)
(0 0 0)
(0.000596793 0.00266305 -0.077763)
(0.018413 0.0468033 -0.968629)
(-0.00321799 -0.00509524 0.31699)
(-0.039388 -0.0446027 0.172211)
(-0.0462909 -0.0470794 -0.573656)
(-0.00359068 -0.0763012 -1.11687)
(0.0295553 -0.0103963 -0.352365)
(0.00245789 -0.00397982 -0.151158)
(0 0 0)
(0 0 0)
(-0.000932455 0.00280795 -0.0467316)
(-0.0251344 0.0328867 1.15919)
(-0.0677125 -0.0350082 -0.172482)
(-0.0612565 -0.0598723 -0.303511)
(-0.0604491 -0.0458428 -0.427709)
(0.0351394 -0.0489245 -0.679681)
(0.0742652 -0.00587414 -0.690245)
(0.000520616 -0.00217604 -0.165164)
(0 0 0)
(0 0 0)
(-0.00163289 -0.00371902 -0.0553011)
(-0.0522936 -0.0979949 0.925351)
(-0.0865723 -0.0735553 -0.290322)
(-0.0460302 -0.035925 -0.344276)
(-0.0292424 -0.00365073 -0.356026)
(0.0389061 0.0298298 -0.368905)
(0.0716777 0.00761479 -0.73672)
(0.00321944 0.00267474 -0.154977)
(0 0 0)
(0 0 0)
(-0.00106593 -0.00643571 -0.0866655)
(-0.0491005 -0.12397 -0.893176)
(-0.0429353 -0.097279 -0.506515)
(-0.000994481 -0.0326905 -0.40927)
(0.00754328 0.00455981 -0.360131)
(0.0453008 0.0437177 -0.345917)
(0.0489459 0.0152197 -0.642586)
(0.000981581 0.0023757 -0.148141)
(0 0 0)
(0 0 0)
(-0.002363 -0.000548193 -0.0988196)
(-0.0857497 -0.0184922 -2.02338)